<?xml version="1.0" encoding="utf-8"?>
<VTKFile type="PolyData">
  <PolyData>
    <Piece NumberOfPoints="21" NumberOfLines="20" NumberOfVerts="0" NumberOfStrips="0" NumberOfPolys="0">
      <PointData Scalars="Line">
        <DataArray Name="Line" type="Float64" NumberOfComponents="1" format="ascii">
	  0.0 5.0 10.0 15.0 20.0 25.0 30.0 35.0 40.0 45.0 50.0 55.0 60.0 65.0 70.0 75.0 80.0 85.0 90.0 95.0 100.0 
	</DataArray>
      </PointData>
      <Points>
        <DataArray Name="points" type="Float64" NumberOfComponents="3" format="ascii">
	  1.0 0.0 0.0
	  1.0 -1.2246467991473533e-15 0.3090169943749474
	  1.0 -2.4492935982947065e-15 0.5877852522924731
	  1.0 -1.0779367755043061e-14 0.8090169943749473
	  1.0 -4.898587196589413e-15 0.9510565162951535
	  1.0 9.82193361864236e-16 1.0
	  1.0 -2.1558735510086122e-14 0.9510565162951536
	  1.0 -1.5677954951632475e-14 0.8090169943749475
	  1.0 -9.797174393178826e-15 0.5877852522924732
	  1.0 -3.9163938347251765e-15 0.3090169943749475
	  1.0 1.964386723728472e-15 1.2246467991473532e-16
	  1.0 7.84516728218212e-15 -0.30901699437494773
	  1.0 -4.3117471020172244e-14 -0.587785252292473
	  1.0 -3.7236690461718594e-14 -0.8090169943749473
	  1.0 -3.135590990326495e-14 -0.9510565162951535
	  1.0 -2.54751293448113e-14 -1.0
	  1.0 -1.9594348786357652e-14 -0.9510565162951536
	  1.0 -1.3713568227904002e-14 -0.8090169943749476
	  1.0 -7.832787669450353e-15 -0.5877852522924732
	  1.0 -1.952007110996705e-15 -0.3090169943749476
	  1.0 3.928773447456944e-15 -2.4492935982947064e-16
	</DataArray>
      </Points>
      <Lines>
        <DataArray Name="connectivity" type="Int64" NumberOfComponents="1" format="ascii">
	  0 1 1 2 2 3 3 4 4 5 5 6 6 7 7 8 8 9 9 10 10 11 11 12 12 13 13 14 14 15 15 16 16 17 17 18 18 19 19 20 
	</DataArray>
        <DataArray Name="offsets" type="Int64" NumberOfComponents="1" format="ascii">
	  2 4 6 8 10 12 14 16 18 20 22 24 26 28 30 32 34 36 38 40 
	</DataArray>
      </Lines>
    </Piece>
  </PolyData>
</VTKFile>
